#     Step Nr.          Time[fs]        Kin.[a.u.]          Temp[K]            Pot.[a.u.]        Cons Qty[a.u.]        UsedTime[s]
         0            0.000000         0.275037913       300.000000000     -1103.020275118     -1102.745237205         0.000000000
         1            0.500000         0.279892572       305.295262467     -1103.024349214     -1102.745394174       140.119087622
         2            1.000000         0.277284333       302.450303185     -1103.035045013     -1102.745707851        25.531958025
         3            1.500000         0.286908535       312.947984623     -1103.049479544     -1102.746076060        27.295389488
         4            2.000000         0.285224957       311.111607116     -1103.056628321     -1102.746208868        20.012933463
         5            2.500000         0.296592322       323.510659621     -1103.060330260     -1102.746244504        27.915989242
         6            3.000000         0.307346632       335.241017457     -1103.057057180     -1102.746126221        48.712873533
         7            3.500000         0.293581073       320.226113976     -1103.049044220     -1102.745908710        31.278041612
         8            4.000000         0.283284014       308.994506688     -1103.041115932     -1102.745691032        37.795990597
         9            4.500000         0.284617550       310.449073011     -1103.035150278     -1102.745537841        45.931727506
        10            5.000000         0.277658252       302.858158123     -1103.032599018     -1102.745461155        43.209918965
        11            5.500000         0.296900703       323.847029500     -1103.034698583     -1102.745496068        38.668384213
        12            6.000000         0.295839694       322.689724836     -1103.037611012     -1102.745555517        33.407966677
        13            6.500000         0.290364397       316.717496669     -1103.042916084     -1102.745636186        31.269265853
        14            7.000000         0.290677901       317.059453420     -1103.051245879     -1102.745761263        17.564954106
        15            7.500000         0.313626831       342.091198754     -1103.058506176     -1102.745859180        27.278036866
        16            8.000000         0.323250685       352.588501490     -1103.067041113     -1102.746009822        24.015613571
        17            8.500000         0.304832896       332.499137941     -1103.070834385     -1102.746029367        23.410517652
        18            9.000000         0.294651111       321.393267282     -1103.071835434     -1102.745935101        23.521733921
        19            9.500000         0.297392071       324.382992777     -1103.070279266     -1102.745752614        25.810179055
        20           10.000000         0.290653540       317.032881281     -1103.068626259     -1102.745575379        17.080126986
        21           10.500000         0.296618627       323.539352342     -1103.071416146     -1102.745430259        11.396698698
        22           11.000000         0.304690194       332.343484419     -1103.078780100     -1102.745465243        10.247230291
        23           11.500000         0.309345708       337.421527339     -1103.091028466     -1102.745727217        10.167583831
        24           12.000000         0.313619875       342.083611925     -1103.104840331     -1102.746115236         9.737771787
        25           12.500000         0.307378386       335.275652739     -1103.112660930     -1102.746540473         9.655551024
        26           13.000000         0.298783605       325.900821403     -1103.110389536     -1102.746755127         9.778405879
        27           13.500000         0.304869954       332.539559667     -1103.096012596     -1102.746099712         9.768592689
        28           14.000000         0.288142794       314.294263255     -1103.085766476     -1102.745089493         9.507953327
        29           14.500000         0.282093890       307.696368920     -1103.089802421     -1102.745073925         9.721742988
        30           15.000000         0.300901281       328.210694090     -1103.105932021     -1102.746010354        12.635511607
        31           15.500000         0.330828940       360.854549828     -1103.124341147     -1102.746642308         9.554372534
        32           16.000000         0.336721162       367.281541755     -1103.135722307     -1102.746667293         9.383793108
        33           16.500000         0.322103724       351.337443566     -1103.138957048     -1102.746445009         9.451876868
        34           17.000000         0.316031817       344.714458922     -1103.138029991     -1102.746299530         9.733812105
        35           17.500000         0.314777665       343.346481361     -1103.136129277     -1102.746251654         9.427754957
        36           18.000000         0.306052122       333.829019716     -1103.133282895     -1102.746279424         9.485066161
        37           18.500000         0.318897841       347.840599076     -1103.126916776     -1102.746213233         9.688759021
        38           19.000000         0.290971749       317.379971256     -1103.118661377     -1102.746055391         9.522355020
        39           19.500000         0.290782982       317.174072147     -1103.113303068     -1102.745882185         9.747395128
        40           20.000000         0.277007444       302.148283686     -1103.112889026     -1102.745830154        12.528239660
        41           20.500000         0.297645002       324.658880254     -1103.117548243     -1102.745925296         9.473160163
        42           21.000000         0.299524677       326.709151892     -1103.125060002     -1102.746076800         9.801002983
        43           21.500000         0.300891229       328.199730612     -1103.131023804     -1102.746130550         9.813037563
        44           22.000000         0.305849332       333.607824394     -1103.137795056     -1102.746165287         9.630653877
        45           22.500000         0.302070346       329.485862426     -1103.144249961     -1102.746201282         9.477499869
        46           23.000000         0.291636653       318.105220626     -1103.149296442     -1102.746216724         9.466891438
        47           23.500000         0.285709030       311.639614509     -1103.158105644     -1102.746329042         9.808320697
        48           24.000000         0.292194292       318.713469840     -1103.166807898     -1102.746468473         9.722399026
        49           24.500000         0.301852858       329.248635147     -1103.174229518     -1102.746613222         9.641428743
        50           25.000000         0.299414639       326.589127023     -1103.179031784     -1102.746762556        13.517297581
        51           25.500000         0.282044791       307.642813681     -1103.178918244     -1102.746776111         9.431458347
        52           26.000000         0.275344119       300.333997817     -1103.176886882     -1102.746644916         9.664833196
        53           26.500000         0.274768421       299.706049436     -1103.170003816     -1102.746359300         9.488063999
        54           27.000000         0.280566470       306.030322183     -1103.168403455     -1102.746202751         9.770960540
        55           27.500000         0.270469706       295.017188889     -1103.170775037     -1102.746185458         9.874480698
        56           28.000000         0.278545927       303.826397229     -1103.180492925     -1102.746389308        10.062629860
        57           28.500000         0.296622712       323.543808407     -1103.193155799     -1102.746702055         9.567934770
        58           29.000000         0.300045357       327.277087595     -1103.201333882     -1102.746833342         9.484186240
        59           29.500000         0.314270082       342.792830636     -1103.207132527     -1102.746874963         9.386191763
        60           30.000000         0.316287894       344.993777064     -1103.208423843     -1102.746806955        12.434407543
        61           30.500000         0.306330704       334.132885391     -1103.206516948     -1102.746688284         9.409006845
        62           31.000000         0.305589373       333.324271758     -1103.202392018     -1102.746549889         9.578867018
        63           31.500000         0.305854347       333.613294279     -1103.199601135     -1102.746494014         9.495414704
        64           32.000000         0.311949242       340.261353731     -1103.197855112     -1102.746459325         9.548731182
        65           32.500000         0.300739225       328.033930212     -1103.195717979     -1102.746436015         9.819475226
        66           33.000000         0.295980350       322.843145703     -1103.191188433     -1102.746325104         9.281640302
        67           33.500000         0.302099145       329.517275337     -1103.190358336     -1102.746285781         9.403262082
        68           34.000000         0.326045075       355.636507351     -1103.194150756     -1102.746362286         8.492363904
        69           34.500000         0.348535657       380.168305299     -1103.199004906     -1102.746450079         9.336099379
        70           35.000000         0.349001446       380.676368647     -1103.202295844     -1102.746485067        11.183558144
        71           35.500000         0.350138042       381.916121154     -1103.203637503     -1102.746480760         9.220772691
        72           36.000000         0.346279716       377.707617972     -1103.204371957     -1102.746493957         9.389905065
        73           36.500000         0.337929695       368.599760312     -1103.202586224     -1102.746466546         9.662965540
        74           37.000000         0.308617141       336.626836074     -1103.201413583     -1102.746423617         9.668756414
        75           37.500000         0.314505824       343.049968290     -1103.200612076     -1102.746423593         9.678385790
        76           38.000000         0.292880562       319.462025205     -1103.199855607     -1102.746424239         9.782498125
        77           38.500000         0.292781980       319.354496263     -1103.201758407     -1102.746440779         8.509017635
        78           39.000000         0.301266915       328.609512890     -1103.203533149     -1102.746458084         9.405828107
        79           39.500000         0.308452612       336.447374345     -1103.204408574     -1102.746457729         9.511198089
        80           40.000000         0.292900226       319.483474023     -1103.204255479     -1102.746412467        13.758137029
        81           40.500000         0.314949185       343.533567761     -1103.204191593     -1102.746360713         8.449219760
        82           41.000000         0.295216114       322.009549085     -1103.205661524     -1102.746342450         8.261697289
        83           41.500000         0.305683811       333.427280703     -1103.208931104     -1102.746413471         8.598427549
        84           42.000000         0.317323817       346.123718732     -1103.211745725     -1102.746514250         8.626882464
        85           42.500000         0.319996056       349.038486371     -1103.213297664     -1102.746573372         8.563978571
        86           43.000000         0.307862491       335.803694795     -1103.215156437     -1102.746619568         8.545173224
        87           43.500000         0.305071670       332.759582493     -1103.217173638     -1102.746687592         8.516840108
        88           44.000000         0.324403841       353.846316440     -1103.218533346     -1102.746707004         8.479281027
        89           44.500000         0.313704645       342.176074913     -1103.216575990     -1102.746672287         9.516957305
        90           45.000000         0.302159518       329.583126996     -1103.211318573     -1102.746584037        12.568151630
        91           45.500000         0.294677917       321.422506458     -1103.205188676     -1102.746475384         8.611805987
        92           46.000000         0.286774201       312.801458788     -1103.198527480     -1102.746319360         8.687114161
        93           46.500000         0.279594801       304.970465626     -1103.191694788     -1102.746162089         8.391431324
        94           47.000000         0.259163211       282.684531464     -1103.188510717     -1102.746086114         8.710839242
        95           47.500000         0.274827864       299.770887300     -1103.191669947     -1102.746208665         8.532232679
        96           48.000000         0.284648129       310.482427137     -1103.192719519     -1102.746270313         8.405473504
        97           48.500000         0.301946683       329.350975765     -1103.192798756     -1102.746247027         9.693518605
        98           49.000000         0.291314650       317.753993295     -1103.191678192     -1102.746163410         8.263682242
        99           49.500000         0.290576328       316.948662590     -1103.192025079     -1102.746155439         8.378768265
       100           50.000000         0.265494170       289.590079468     -1103.193039034     -1102.746208560        11.290240351
       101           50.500000         0.282100074       307.703113864     -1103.196026647     -1102.746267629         8.767308608
       102           51.000000         0.295224153       322.018317638     -1103.198644040     -1102.746281255         8.463474717
       103           51.500000         0.288903387       315.123887467     -1103.196579602     -1102.746144148         8.513234720
       104           52.000000         0.280846689       306.335973335     -1103.193470292     -1102.746012422         8.301342349
       105           52.500000         0.275960069       301.005850250     -1103.191350582     -1102.745934499         8.771503486
       106           53.000000         0.276083791       301.140800842     -1103.195384211     -1102.746059548         8.499655806
       107           53.500000         0.285219338       311.105478146     -1103.201720499     -1102.746245961         8.535992097
       108           54.000000         0.296081178       322.953124942     -1103.208188723     -1102.746434760         8.577958360
       109           54.500000         0.300070907       327.304956978     -1103.214678241     -1102.746546569         8.920429461
       110           55.000000         0.289223038       315.472549596     -1103.214289597     -1102.746494538        12.257632501
       111           55.500000         0.289841199       316.146813337     -1103.210994357     -1102.746379784         8.856144972
       112           56.000000         0.295016052       321.791330185     -1103.207585039     -1102.746262525         8.733906578
       113           56.500000         0.276508880       301.604470891     -1103.203942679     -1102.746182113         8.707287423
       114           57.000000         0.296406322       323.307778852     -1103.201426218     -1102.746134190         8.559725404
       115           57.500000         0.299632596       326.826864935     -1103.202974633     -1102.746155377         8.144673899
       116           58.000000         0.299327623       326.494213797     -1103.204375247     -1102.746193455         9.281933028
       117           58.500000         0.280292763       305.731774199     -1103.206898940     -1102.746264992         8.455052875
       118           59.000000         0.290140637       316.473428138     -1103.209420300     -1102.746313055         8.357023872
       119           59.500000         0.301071154       328.395984981     -1103.209989543     -1102.746340406         8.178034108
       120           60.000000         0.295862948       322.715088514     -1103.208329686     -1102.746260350        12.594014585
       121           60.500000         0.291228999       317.660568728     -1103.207363121     -1102.746187562         8.332610197
       122           61.000000         0.289854951       316.161814172     -1103.207908862     -1102.746195108         8.335758917
       123           61.500000         0.283768583       309.523054320     -1103.210176438     -1102.746281109         9.397071496
       124           62.000000         0.291416566       317.865159077     -1103.213611855     -1102.746379514         8.642951738
       125           62.500000         0.298869315       325.994309393     -1103.217073167     -1102.746461257         8.665441249
       126           63.000000         0.311436377       339.701941826     -1103.216822345     -1102.746403025         8.316956066
       127           63.500000         0.315423946       344.051418008     -1103.215262538     -1102.746299262         8.293092359
       128           64.000000         0.310891413       339.107518446     -1103.210230174     -1102.746126294         8.324537754
       129           64.500000         0.309055730       337.105230335     -1103.206583733     -1102.746043231         8.291491840
       130           65.000000         0.311674584       339.961768810     -1103.207661706     -1102.746089889        11.317400180
       131           65.500000         0.305390237       333.107062474     -1103.211308168     -1102.746174808         8.468739696
       132           66.000000         0.313847893       342.332324594     -1103.214485868     -1102.746276525         8.479662221
       133           66.500000         0.322305459       351.557488166     -1103.213772102     -1102.746310149         8.429553278
       134           67.000000         0.319169905       348.137354942     -1103.211658870     -1102.746264069         8.533892311
       135           67.500000         0.318792773       347.725994972     -1103.208487041     -1102.746153594         8.555963341
       136           68.000000         0.313927503       342.419159669     -1103.204859947     -1102.745966371         8.436952177
       137           68.500000         0.320570760       349.665350149     -1103.203642422     -1102.745865476         9.195672195
       138           69.000000         0.305945160       333.712349030     -1103.206529021     -1102.745969313         9.205182370
       139           69.500000         0.295007351       321.781838921     -1103.212123855     -1102.746160363         9.393374860
       140           70.000000         0.312225678       340.562879586     -1103.219494505     -1102.746388017        11.791041862
       141           70.500000         0.301465081       328.825664000     -1103.222706728     -1102.746473651         8.970997110
       142           71.000000         0.307659144       335.581892689     -1103.219472514     -1102.746429663         8.525912758
       143           71.500000         0.287535646       313.632011473     -1103.212423250     -1102.746308871         8.529093958
       144           72.000000         0.289185204       315.431281045     -1103.204314572     -1102.746110188         8.505717356
       145           72.500000         0.282452291       308.087297641     -1103.197592189     -1102.745950396         8.546149623
       146           73.000000         0.262317130       286.124695653     -1103.195296986     -1102.745963212         8.454685666
       147           73.500000         0.276404134       301.490218008     -1103.196889975     -1102.746173280         8.433833469
       148           74.000000         0.288143636       314.295182006     -1103.197358644     -1102.746323537         8.460168999
       149           74.500000         0.300454692       327.723573735     -1103.193749217     -1102.746279312         8.419453576
       150           75.000000         0.294035361       320.721632213     -1103.192387921     -1102.746204735        11.218351681
       151           75.500000         0.292091314       318.601146406     -1103.190914725     -1102.746127342         8.912429042
       152           76.000000         0.281802496       307.378528305     -1103.191691614     -1102.746124050         8.504879490
       153           76.500000         0.280164837       305.592237575     -1103.189783475     -1102.746074334         8.630089901
       154           77.000000         0.260422675       284.058302151     -1103.187785161     -1102.746060429         8.509829633
       155           77.500000         0.256775512       280.080127373     -1103.189835839     -1102.746127275         8.637042440
       156           78.000000         0.259390183       282.932102510     -1103.193445019     -1102.746216507         8.429182433
       157           78.500000         0.254555433       277.658556939     -1103.199675267     -1102.746330296         8.432706106
       158           79.000000         0.270848541       295.430406796     -1103.204566923     -1102.746395989         8.282335255
       159           79.500000         0.284799171       310.647177661     -1103.205180842     -1102.746337622         8.579437096
       160           80.000000         0.281603311       307.161265877     -1103.203447115     -1102.746248469        12.354497686
       161           80.500000         0.273841350       298.694838578     -1103.202742981     -1102.746189250         8.541838627
       162           81.000000         0.274426561       299.333163174     -1103.201701268     -1102.746155219         9.345956117
       163           81.500000         0.293106427       319.708389836     -1103.199947695     -1102.746120188         8.386251993
       164           82.000000         0.296919377       323.867397882     -1103.199603998     -1102.746084920         9.381275006
       165           82.500000         0.301058352       328.382020653     -1103.198488688     -1102.746051058         8.357493769
       166           83.000000         0.295972931       322.835053738     -1103.198522481     -1102.746035009         8.411499303
       167           83.500000         0.292040089       318.545272417     -1103.198334478     -1102.746031984         8.652975690
       168           84.000000         0.298299702       325.372999648     -1103.198880168     -1102.746041988         8.411588844
       169           84.500000         0.292024217       318.527959604     -1103.197124558     -1102.746019292         8.385556046
       170           85.000000         0.299630815       326.824922609     -1103.196895451     -1102.746049860        11.354884859
       171           85.500000         0.272278449       296.990091361     -1103.195460709     -1102.746037294         8.520293504
       172           86.000000         0.276629310       301.735830754     -1103.197918787     -1102.746082492         9.425451979
       173           86.500000         0.295600236       322.428533118     -1103.202442408     -1102.746142421         9.309500676
       174           87.000000         0.287175484       313.239161896     -1103.203791811     -1102.746135036         8.449975763
       175           87.500000         0.269203328       293.635876183     -1103.205449722     -1102.746173521         8.520305440
       176           88.000000         0.267830343       292.138280790     -1103.206140519     -1102.746182147         8.643242463
       177           88.500000         0.282769039       308.432793337     -1103.207817317     -1102.746189691         8.557713743
       178           89.000000         0.272077103       296.770471633     -1103.207365030     -1102.746146516         8.564083245
       179           89.500000         0.278952422       304.269785277     -1103.207588952     -1102.746109904         8.207698766
       180           90.000000         0.287959733       314.094588005     -1103.209844425     -1102.746139530        14.695769280
       181           90.500000         0.286510373       312.513685693     -1103.210687538     -1102.746193399         8.678525951
       182           91.000000         0.282774973       308.439266566     -1103.213858532     -1102.746268821         8.534531828
       183           91.500000         0.287633722       313.738988742     -1103.212406308     -1102.746172561         8.537669841
       184           92.000000         0.289150635       315.393574455     -1103.211324734     -1102.746064311         8.415480796
       185           92.500000         0.288733948       314.939070494     -1103.213168346     -1102.746113604         8.675491557
       186           93.000000         0.304080120       331.678040696     -1103.214690768     -1102.746217973         8.603699755
       187           93.500000         0.307341165       335.235054119     -1103.217208323     -1102.746342993         8.760854326
       188           94.000000         0.308629754       336.640593690     -1103.217673852     -1102.746347128         8.477937650
       189           94.500000         0.297232215       324.208629050     -1103.214876214     -1102.746246099         8.479463987
       190           95.000000         0.281525847       307.076771191     -1103.208581034     -1102.746069833        11.980717022
       191           95.500000         0.275103427       300.071460658     -1103.201502309     -1102.745896055         8.574374862
       192           96.000000         0.260773427       284.440887730     -1103.199240644     -1102.745879773         8.411843881
       193           96.500000         0.271817837       296.487674272     -1103.198540323     -1102.745895428         8.479149010
       194           97.000000         0.265228715       289.300531970     -1103.201829870     -1102.745984343         8.734304015
       195           97.500000         0.280965260       306.465306314     -1103.207172258     -1102.746082279         8.744095795
       196           98.000000         0.274860913       299.806936279     -1103.210988931     -1102.746149934         8.732293647
       197           98.500000         0.274455434       299.364656235     -1103.213966827     -1102.746177724         8.477981437
       198           99.000000         0.274875250       299.822574882     -1103.217253380     -1102.746189319         8.455968156
       199           99.500000         0.278015729       303.248079477     -1103.218180848     -1102.746157628         8.459377442
       200          100.000000         0.276429640       301.518038911     -1103.215652791     -1102.746070492        11.664449926
       201          100.500000         0.273601724       298.433464982     -1103.212065764     -1102.745975693         9.493928540
       202          101.000000         0.278378774       303.644073425     -1103.211730693     -1102.745974450         8.402989604
       203          101.500000         0.292474651       319.019274519     -1103.209953162     -1102.745904168         8.431901094
       204          102.000000         0.299489565       326.670852790     -1103.211237982     -1102.745851105         8.354121365
       205          102.500000         0.312939669       341.341671379     -1103.214092637     -1102.745841516         8.262370642
       206          103.000000         0.320713212       349.820730713     -1103.218991172     -1102.745938907         9.222757634
       207          103.500000         0.310280119       338.440743927     -1103.223602380     -1102.746096355         8.344608232
       208          104.000000         0.304704793       332.359408102     -1103.223312623     -1102.746179587         8.476777904
       209          104.500000         0.296582473       323.499917246     -1103.220968804     -1102.746195895         8.437112279
       210          105.000000         0.281587170       307.143660028     -1103.215681690     -1102.746124733        11.364052843
       211          105.500000         0.287765317       313.882527755     -1103.208994311     -1102.745938550         8.782106075
       212          106.000000         0.276888270       302.018293924     -1103.204501934     -1102.745767124         8.911484182
       213          106.500000         0.281730745       307.300265150     -1103.204340263     -1102.745774733         8.612838309
       214          107.000000         0.304479156       332.113292699     -1103.207581860     -1102.745898253         8.856759086
       215          107.500000         0.302969493       330.466614559     -1103.213722025     -1102.746102659         9.093295671
       216          108.000000         0.307458661       335.363214254     -1103.218237235     -1102.746260608         8.962306816
       217          108.500000         0.313027780       341.437778557     -1103.221107416     -1102.746300245         8.941290364
       218          109.000000         0.293154348       319.760659860     -1103.220805397     -1102.746259791         8.616742495
       219          109.500000         0.284182408       309.974437988     -1103.216652068     -1102.746169101         8.694925301
       220          110.000000         0.291444252       317.895357501     -1103.213029428     -1102.746072403        12.003771208
       221          110.500000         0.291157750       317.582853203     -1103.210843696     -1102.745979915         8.666791506
       222          111.000000         0.279582956       304.957545633     -1103.209724369     -1102.745887363         8.847258214
       223          111.500000         0.282994944       308.679201913     -1103.208563742     -1102.745804834         8.397930197
       224          112.000000         0.281546756       307.099577976     -1103.208648588     -1102.745793826         8.376357079
       225          112.500000         0.276249627       301.321688499     -1103.213062179     -1102.745882111         8.417933863
       226          113.000000         0.289609666       315.894267522     -1103.216572561     -1102.745908107         8.421076491
       227          113.500000         0.291464859       317.917834976     -1103.222701455     -1102.745958231         8.511722438