ITEM: TIMESTEP
0
ITEM: NUMBER OF ATOMS
360
ITEM: BOX BOUNDS pp pp pp
0.0000000000000000e+00 6.6943295008216896e+00
0.0000000000000000e+00 6.6943295008216896e+00
0.0000000000000000e+00 6.6943295008216896e+00
ITEM: ATOMS id type xs ys zs
17 1 0.0909538 0.177919 0.189936
247 1 0.129545 0.0303685 0.116897
242 1 0.118296 0.17196 0.0312021
175 1 0.0131947 0.0321598 0.224076
41 1 0.250263 0.130044 0.139551
223 1 0.403704 0.0791465 0.0955388
121 1 0.368694 0.175701 0.228063
327 2 0.488162 0.146954 0.0352418
342 2 0.33229 0.047073 0.213874
294 2 0.348334 0.177109 0.0387129
308 2 0.513941 0.0650956 0.148602
96 1 0.507902 0.198331 0.149069
77 1 0.611393 0.125428 0.067293
226 1 0.607223 0.102859 0.228922
262 1 0.743098 0.111847 0.13966
122 1 0.514732 0.00954981 0.0241879
91 1 0.983974 0.105737 0.0912448
126 1 0.869306 0.209012 0.0864293
135 1 0.877089 0.119208 0.22281
345 2 0.984704 0.230912 0.0367754
21 1 0.81305 0.0869415 0.00202511
100 1 0.22071 0.416209 0.0357053
203 1 0.108204 0.302902 0.110101
179 1 0.184951 0.431443 0.186855
217 1 0.0228666 0.429234 0.158144
27 1 0.243592 0.285832 0.165812
281 1 0.245063 0.250029 0.0140215
235 1 0.380902 0.286613 0.0966542
169 1 0.340845 0.418078 0.131996
118 1 0.432996 0.335154 0.243298
59 1 0.453979 0.409323 0.0328456
353 2 0.331593 0.482549 0.234842
150 1 0.643663 0.252138 0.208582
129 1 0.571173 0.388313 0.128329
200 1 0.731917 0.29753 0.0735371
184 1 0.702228 0.396999 0.19811
5 1 0.729871 0.45996 0.0655688
352 2 0.57206 0.470002 0.230617
268 1 0.58473 0.283761 0.0213418
151 1 0.969192 0.284875 0.172872
343 2 0.826365 0.385412 0.0168384
50 1 0.85386 0.40265 0.146391
163 1 0.957165 0.362143 0.00840152
13 1 0.808263 0.266814 0.211733
45 1 0.196261 0.0464329 0.258015
86 1 0.221414 0.186112 0.296842
63 1 0.202424 0.0830175 0.426689
130 1 0.080818 0.13613 0.340089
329 2 0.0115765 0.20299 0.433588
106 1 0.160466 0.243734 0.429753
282 1 0.353697 0.0237532 0.480176
99 1 0.461706 0.042008 0.262304
36 1 0.467525 0.107497 0.425461
97 1 0.329525 0.0699829 0.34636
103 1 0.341593 0.230231 0.371258
132 1 0.4966 0.201258 0.318216
131 1 0.643676 0.0638048 0.461559
323 2 0.562456 0.0773027 0.344474
15 1 0.660225 0.174086 0.353132
309 2 0.74699 0.152946 0.254813
158 1 0.708478 0.225155 0.494081
137 1 0.777504 0.0518371 0.336198
227 1 0.962268 0.222982 0.321697
48 1 0.820466 0.190591 0.365506
254 1 0.940079 0.0802673 0.394953
108 1 0.796258 0.0763479 0.496944
208 1 0.100639 0.316105 0.269058
136 1 0.0225629 0.357788 0.425988
248 1 0.150058 0.441153 0.449826
216 1 0.0755772 0.456787 0.316689
72 1 0.24516 0.344628 0.313347
314 2 0.278533 0.498554 0.449185
176 1 0.288514 0.343739 0.484271
47 1 0.352871 0.445702 0.351217
80 1 0.439898 0.339741 0.401479
31 1 0.392604 0.455218 0.494313
286 1 0.56046 0.253289 0.452991
259 1 0.717154 0.331538 0.351306
230 1 0.573917 0.355818 0.292231
165 1 0.597466 0.396871 0.450023
285 1 0.508685 0.489484 0.339639
215 1 0.820984 0.456521 0.321635
125 1 0.945144 0.492476 0.39268
279 1 0.950089 0.377701 0.280097
220 1 0.870957 0.333354 0.402325
22 1 0.775772 0.44508 0.480214
113 1 0.155949 0.166314 0.643812
154 1 0.0628562 0.0288875 0.652473
111 1 0.234484 0.0374336 0.585408
267 1 0.237014 0.0778683 0.745323
104 1 0.0775858 0.127044 0.502961
37 1 0.304162 0.188369 0.668969
9 1 0.467966 0.141248 0.641263
339 2 0.358815 0.124436 0.568861
134 1 0.382751 0.0104017 0.635659
107 1 0.263158 0.186775 0.522359
81 1 0.411065 0.233982 0.514758
303 2 0.515912 0.0564908 0.712444
56 1 0.640064 0.0323708 0.740402
204 1 0.622702 0.160727 0.608441
321 2 0.519657 0.148069 0.529273
76 1 0.546647 0.0178302 0.587597
66 1 0.952199 0.137797 0.64107
195 1 0.785261 0.182349 0.643061
256 1 0.789788 0.0543264 0.722373
148 1 0.959525 0.0385357 0.535164
338 2 0.854916 0.0469733 0.616386
24 1 0.900348 0.205165 0.511749
287 1 0.941551 0.00977617 0.738109
332 2 0.0456703 0.297551 0.689987
239 1 0.0175975 0.271706 0.576614
229 1 0.188129 0.309295 0.62614
225 1 0.158232 0.444451 0.719386
94 1 0.0739772 0.429456 0.586486
67 1 0.238984 0.452361 0.579939
123 1 0.362069 0.346569 0.61723
317 2 0.486458 0.361375 0.515216
313 2 0.284073 0.438634 0.694569
198 1 0.428946 0.422323 0.736062
172 1 0.426621 0.261396 0.740485
73 1 0.519633 0.477617 0.593429
139 1 0.525496 0.294483 0.626118
147 1 0.677417 0.42689 0.619462
12 1 0.680648 0.286609 0.681723
322 2 0.634225 0.323104 0.550863
250 1 0.585398 0.432627 0.735589
33 1 0.997122 0.425971 0.723766
11 1 0.905574 0.291397 0.671886
25 1 0.79777 0.329625 0.574059
1 1 0.929667 0.394978 0.535619
109 1 0.841676 0.463347 0.654736
302 2 0.216421 0.20265 0.766576
257 1 0.0525382 0.154696 0.753702
124 1 0.165964 0.161519 0.881963
218 1 0.0965454 0.0258737 0.947284
284 1 0.100906 0.0106909 0.798282
74 1 0.39824 0.0871751 0.766317
330 2 0.318855 0.0638752 0.855201
222 1 0.409593 0.103964 0.936324
252 1 0.313826 0.201364 0.83972
304 2 0.457285 0.18547 0.843407
115 1 0.253438 0.0798963 0.994376
90 1 0.558812 0.169318 0.764205
55 1 0.707544 0.204185 0.953977
178 1 0.676198 0.0509541 0.902796
251 1 0.715717 0.170032 0.7829
152 1 0.566398 0.160402 0.918129
246 1 0.520893 0.0255731 0.852059
347 2 0.979496 0.0568009 0.837424
174 1 0.999921 0.154185 0.920618
312 2 0.808251 0.142988 0.89422
140 1 0.888297 0.157111 0.786367
7 1 0.848623 0.0247142 0.866807
291 2 0.941338 0.0401541 0.981503
206 1 0.0808779 0.454655 0.978239
138 1 0.126037 0.306918 0.79507
221 1 0.105148 0.304282 0.945166
348 2 0.0533924 0.405192 0.860416
255 1 0.196788 0.426404 0.879764
349 2 0.225577 0.298561 0.889748
346 2 0.326089 0.362552 0.994191
182 1 0.281363 0.322422 0.75133
245 1 0.427794 0.256751 0.953247
141 1 0.352196 0.368582 0.868892
168 1 0.339747 0.496869 0.971863
35 1 0.596055 0.462197 0.990609
23 1 0.505979 0.360474 0.87193
298 2 0.619134 0.433189 0.86334
289 2 0.528597 0.320657 0.754795
128 1 0.727557 0.362066 0.932719
52 1 0.740531 0.428857 0.780479
277 1 0.637668 0.29051 0.83814
32 1 0.868495 0.414674 0.897775
98 1 0.80834 0.287475 0.793488
310 2 0.881704 0.39301 0.766385
211 1 0.970377 0.307348 0.829897
110 1 0.857305 0.256433 0.940257
51 1 0.0508544 0.580746 0.205492
65 1 0.148307 0.550559 0.0841969
44 1 0.213135 0.636165 0.196341
190 1 0.0987424 0.697628 0.089199
243 1 0.102685 0.733584 0.247284
261 1 0.248705 0.662794 0.0386486
305 2 0.338745 0.679186 0.173164
6 1 0.338131 0.567975 0.11902
78 1 0.485534 0.66311 0.172774
264 1 0.393767 0.701822 0.0496137
105 1 0.488779 0.571624 0.0332196
197 1 0.465511 0.502951 0.18584
69 1 0.667522 0.684903 0.138375
295 2 0.540682 0.686672 0.0618674
320 2 0.714763 0.718651 0.00595623
276 1 0.741221 0.544224 0.212829
170 1 0.606334 0.539995 0.130784
311 2 0.987238 0.536757 0.0995996
2 1 0.897063 0.512811 0.0113443
275 1 0.786708 0.616166 0.0629641
187 1 0.938661 0.658488 0.10768
155 1 0.795806 0.689067 0.21248
207 1 0.903376 0.530841 0.218343
280 1 0.128351 0.858141 0.128854
301 2 0.112412 0.942001 0.212298
87 1 0.0140473 0.947827 0.0606827
10 1 0.246048 0.843903 0.0203544
356 2 0.185264 0.961117 0.0200092
205 1 0.254769 0.781787 0.163126
8 1 0.267452 0.957069 0.133223
159 1 0.405248 0.784913 0.214685
326 2 0.359355 0.847709 0.0880925
270 1 0.437117 0.933667 0.142341
196 1 0.467044 0.84676 0.0138389
19 1 0.683289 0.986146 0.0525693
201 1 0.579504 0.945913 0.165533
144 1 0.53635 0.801237 0.141466
269 1 0.687292 0.83078 0.107355
315 2 0.58315 0.879209 0.0591916
358 2 0.610449 0.838606 0.234902
29 1 0.748339 0.969091 0.209983
219 1 0.870467 0.991058 0.115918
293 2 0.956914 0.930614 0.184383
119 1 0.982562 0.808346 0.124497
340 2 0.783087 0.906526 0.0698178
180 1 0.853564 0.842473 0.205607
54 1 0.82816 0.773164 0.0729173
162 1 0.219594 0.534095 0.316061
42 1 0.0501758 0.613694 0.365046
350 2 0.0812084 0.672476 0.476443
194 1 0.179541 0.599947 0.444726
307 2 0.166147 0.650417 0.322846
199 1 0.1379 0.74568 0.397455
160 1 0.271157 0.718516 0.312325
344 2 0.292794 0.633623 0.39993
30 1 0.353854 0.600466 0.270877
4 1 0.408932 0.594951 0.427737
212 1 0.430101 0.735437 0.358436
290 2 0.476864 0.625329 0.309532
189 1 0.318601 0.739786 0.47508
133 1 0.59091 0.595188 0.269389
85 1 0.556208 0.628023 0.41655
253 1 0.697026 0.661604 0.355368
183 1 0.560911 0.735065 0.293147
297 2 0.507515 0.51657 0.46138
116 1 0.679159 0.50777 0.364945
333 2 0.757378 0.577833 0.443516
20 1 0.945229 0.690816 0.257577
357 2 0.942959 0.629693 0.435558
341 2 0.809934 0.734947 0.328961
26 1 0.838735 0.705666 0.458167
149 1 0.852705 0.606585 0.35101
16 1 0.187091 0.861617 0.278544
355 2 0.0876623 0.85 0.394783
43 1 0.24027 0.934515 0.41109
228 1 0.0943078 0.979929 0.357934
318 2 0.298446 0.814363 0.380544
95 1 0.337904 0.934349 0.271439
249 1 0.392435 0.880929 0.442136
238 1 0.486217 0.889976 0.286353
337 2 0.418607 0.980109 0.362101
114 1 0.607164 0.837638 0.412469
18 1 0.73237 0.926354 0.419416
70 1 0.631917 0.960054 0.311037
319 2 0.736388 0.780873 0.435296
265 1 0.529295 0.95721 0.435521
244 1 0.716965 0.826071 0.298262
336 2 0.852111 0.987449 0.412575
112 1 0.971207 0.904669 0.436378
232 1 0.856794 0.838771 0.381211
272 1 0.894753 0.965682 0.292502
258 1 0.981676 0.755701 0.40596
88 1 0.999248 0.841882 0.279948
142 1 0.0600114 0.578878 0.654513
271 1 0.184949 0.689203 0.566908
354 2 0.159621 0.553949 0.566283
92 1 0.232037 0.58435 0.679557
283 1 0.0758897 0.72969 0.671776
93 1 0.0342828 0.551605 0.507218
117 1 0.39281 0.688204 0.623052
83 1 0.298526 0.587644 0.529849
214 1 0.364004 0.529953 0.643779
171 1 0.483998 0.575108 0.730602
177 1 0.499634 0.733785 0.709801
210 1 0.487927 0.746388 0.50075
236 1 0.54218 0.637123 0.585092
46 1 0.632043 0.56232 0.679676
193 1 0.633627 0.734378 0.649289
186 1 0.659556 0.537328 0.513759
157 1 0.665551 0.693871 0.510635
209 1 0.764657 0.747542 0.728957
266 1 0.874837 0.554923 0.520696
75 1 0.755149 0.633059 0.61792
161 1 0.91126 0.620227 0.68361
89 1 0.967682 0.684544 0.557333
331 2 0.951771 0.514474 0.619601
233 1 0.124055 0.880958 0.663165
260 1 0.243633 0.871423 0.546649
14 1 0.0847562 0.798873 0.526566
146 1 0.115104 0.960821 0.507949
300 2 0.0402388 0.927173 0.740004
288 1 0.2565 0.773744 0.675793
292 2 0.455867 0.95012 0.537847
231 1 0.268617 0.922538 0.718245
60 1 0.400302 0.848474 0.596564
68 1 0.507039 0.926271 0.7071
127 1 0.710443 0.834649 0.546263
240 1 0.560857 0.850413 0.577107
49 1 0.674169 0.887157 0.689337
325 2 0.635839 0.927863 0.506026
237 1 0.715734 0.993854 0.591601
62 1 0.844059 0.771517 0.592498
58 1 0.846401 0.926496 0.532056
166 1 0.976493 0.903102 0.614391
64 1 0.821913 0.907625 0.682861
185 1 0.926243 0.779694 0.716198
296 2 0.94729 0.811254 0.523273
84 1 0.166227 0.661193 0.790002
360 2 0.20381 0.533766 0.787377
61 1 0.207679 0.572289 0.929364
192 1 0.0155216 0.602641 0.985435
213 1 0.140733 0.715647 0.944849
102 1 0.0738201 0.521067 0.830778
241 1 0.000429005 0.664545 0.815421
38 1 0.33366 0.657713 0.769477
188 1 0.369263 0.631272 0.922382
306 2 0.413412 0.719322 0.837157
316 2 0.268629 0.692921 0.888762
328 2 0.470821 0.733343 0.954638
79 1 0.318569 0.505522 0.804327
278 1 0.468598 0.517008 0.869182
101 1 0.638507 0.61631 0.995296
299 2 0.649615 0.659778 0.765734
82 1 0.534945 0.679483 0.851915
153 1 0.63409 0.556177 0.843513
167 1 0.729385 0.691163 0.870918
145 1 0.774151 0.580276 0.763716
156 1 0.760229 0.536403 0.925762
351 2 0.860371 0.675277 0.781017
274 1 0.874248 0.659764 0.907231
164 1 0.921138 0.537706 0.814134
28 1 0.0955885 0.856838 0.967347
53 1 0.0757755 0.821006 0.801983
40 1 0.227924 0.821902 0.836112
263 1 0.223697 0.966547 0.879874
173 1 0.371299 0.810826 0.76103
273 1 0.371694 0.949325 0.833888
39 1 0.348741 0.785717 0.933477
334 2 0.458067 0.932056 0.919338
120 1 0.485147 0.829498 0.856302
57 1 0.357199 0.961971 0.998072
3 1 0.737402 0.844538 0.964255
34 1 0.630067 0.785968 0.798908
224 1 0.589835 0.916297 0.93263
335 2 0.588497 0.908243 0.805953
191 1 0.723742 0.919772 0.826978
181 1 0.600824 0.759476 0.965876
143 1 0.9655 0.780106 0.949482
202 1 0.987041 0.92482 0.866569
234 1 0.84154 0.801941 0.857355
359 2 0.872962 0.911281 0.796714
324 2 0.76689 0.961419 0.944287
71 1 0.881491 0.902744 0.986782
