
Host: log-2.hpc.nyu.edu

Timers On : Tue Nov 15 14:39:33 2022
Timers Off: Tue Nov 15 14:39:34 2022

Wall Time:        0.34 seconds

                                                       Time (seconds)
Module                                       User      System        Wall        Calls

--------------------------------------------------------------------------------------

**************************************************************************************
